
     Program PWSCF v.6.7MaX starts on 20Jun2023 at 10:32:30 

     This program is part of the open-source Quantum ESPRESSO suite
     for quantum simulation of materials; please cite
         "P. Giannozzi et al., J. Phys.:Condens. Matter 21 395502 (2009);
         "P. Giannozzi et al., J. Phys.:Condens. Matter 29 465901 (2017);
          URL http://www.quantum-espresso.org", 
     in publications or presentations arising from this work. More details at
     http://www.quantum-espresso.org/quote

     Parallel version (MPI), running on     1 processors

     MPI processes distributed on     1 nodes
     Waiting for input...
     Reading input from standard input

     Current dimensions of program PWSCF are:
     Max number of different atomic species (ntypx) = 10
     Max number of k-points (npk) =  40000
     Max angular momentum in pseudopotentials (lmaxx) =  3

     Subspace diagonalization in iterative solution of the eigenvalue problem:
     a serial algorithm will be used

     Message from routine setup:
     using ibrav=0 with symmetry is DISCOURAGED, use correct ibrav instead
 
     G-vector sticks info
     --------------------
     sticks:   dense  smooth     PW     G-vecs:    dense   smooth      PW
     Sum         925     925    265               144835   144835   22205
 


     bravais-lattice index     =            0
     lattice parameter (alat)  =       5.9428  a.u.
     unit-cell volume          =    1155.9745 (a.u.)^3
     number of atoms/cell      =            3
     number of atomic types    =            2
     number of electrons       =        26.00
     number of Kohn-Sham states=          130
     kinetic-energy cutoff     =      95.0000  Ry
     charge density cutoff     =     380.0000  Ry
     scf convergence threshold =      1.0E-10
     mixing beta               =       0.7000
     number of iterations used =            8  plain     mixing
     Exchange-correlation= PZ
                           (   1   1   0   0   0   0   0)
     Non magnetic calculation with spin-orbit


     celldm(1)=   5.942845  celldm(2)=   0.000000  celldm(3)=   0.000000
     celldm(4)=   0.000000  celldm(5)=   0.000000  celldm(6)=   0.000000

     crystal axes: (cart. coord. in units of alat)
               a(1) = (   1.000000   0.000000   0.000000 )  
               a(2) = (  -0.500000   0.866025   0.000000 )  
               a(3) = (   0.000000   0.000000   6.359669 )  

     reciprocal axes: (cart. coord. in units 2 pi/alat)
               b(1) = (  1.000000  0.577350  0.000000 )  
               b(2) = (  0.000000  1.154701  0.000000 )  
               b(3) = (  0.000000  0.000000  0.157241 )  


     PseudoPot. # 1 for Mo read from file:
     ./pp/Mo_rel_rrkj_sc.UPF
     MD5 check sum: f71c3f63a66b3bf12fe0e23ee3fddfdf
     Pseudo is Norm-conserving, Zval = 14.0
     Generated using "atomic" code by A. Dal Corso  (Quantum ESPRESSO distribution)
     Using radial grid of 1229 points,  7 beta functions with: 
                l(1) =   1
                l(2) =   1
                l(3) =   1
                l(4) =   1
                l(5) =   2
                l(6) =   2
                l(7) =   0

     PseudoPot. # 2 for S  read from file:
     ./pp/S_rel_tm.UPF
     MD5 check sum: 1ecc5906f064474f60bd104a40c2a782
     Pseudo is Norm-conserving, Zval =  6.0
     Generated using "atomic" code by A. Dal Corso  (Quantum ESPRESSO distribution)
     Using radial grid of 1151 points,  5 beta functions with: 
                l(1) =   1
                l(2) =   1
                l(3) =   1
                l(4) =   0
                l(5) =   0

     atomic species   valence    mass     pseudopotential
        Mo            14.00    95.95000     Mo( 1.00)
        S              6.00    32.06500     S ( 1.00)

     12 Sym. Ops. (no inversion) found



   Cartesian axes

     site n.     atom                  positions (alat units)
         1           Mo  tau(   1) = (   0.0000000   0.0000000   3.1798343  )
         2           S   tau(   2) = (   0.0000000   0.5773503   3.6794833  )
         3           S   tau(   3) = (   0.0000000   0.5773503   2.6801853  )

     number of k points=    61
                       cart. coord. in units 2pi/alat
        k(    1) = (   0.0000000   0.0000000   0.0000000), wk =   0.0017361
        k(    2) = (   0.0000000   0.0481125   0.0000000), wk =   0.0104167
        k(    3) = (   0.0000000   0.0962250   0.0000000), wk =   0.0104167
        k(    4) = (   0.0000000   0.1443376   0.0000000), wk =   0.0104167
        k(    5) = (   0.0000000   0.1924501   0.0000000), wk =   0.0104167
        k(    6) = (   0.0000000   0.2405626   0.0000000), wk =   0.0104167
        k(    7) = (   0.0000000   0.2886751   0.0000000), wk =   0.0104167
        k(    8) = (   0.0000000   0.3367877   0.0000000), wk =   0.0104167
        k(    9) = (   0.0000000   0.3849002   0.0000000), wk =   0.0104167
        k(   10) = (   0.0000000   0.4330127   0.0000000), wk =   0.0104167
        k(   11) = (   0.0000000   0.4811252   0.0000000), wk =   0.0104167
        k(   12) = (   0.0000000   0.5292377   0.0000000), wk =   0.0104167
        k(   13) = (   0.0000000  -0.5773503   0.0000000), wk =   0.0052083
        k(   14) = (   0.0416667   0.0721688   0.0000000), wk =   0.0104167
        k(   15) = (   0.0416667   0.1202813   0.0000000), wk =   0.0208333
        k(   16) = (   0.0416667   0.1683938   0.0000000), wk =   0.0208333
        k(   17) = (   0.0416667   0.2165064   0.0000000), wk =   0.0208333
        k(   18) = (   0.0416667   0.2646189   0.0000000), wk =   0.0208333
        k(   19) = (   0.0416667   0.3127314   0.0000000), wk =   0.0208333
        k(   20) = (   0.0416667   0.3608439   0.0000000), wk =   0.0208333
        k(   21) = (   0.0416667   0.4089564   0.0000000), wk =   0.0208333
        k(   22) = (   0.0416667   0.4570690   0.0000000), wk =   0.0208333
        k(   23) = (   0.0416667   0.5051815   0.0000000), wk =   0.0208333
        k(   24) = (   0.0416667   0.5532940   0.0000000), wk =   0.0208333
        k(   25) = (   0.0833333   0.1443376   0.0000000), wk =   0.0104167
        k(   26) = (   0.0833333   0.1924501   0.0000000), wk =   0.0208333
        k(   27) = (   0.0833333   0.2405626   0.0000000), wk =   0.0208333
        k(   28) = (   0.0833333   0.2886751   0.0000000), wk =   0.0208333
        k(   29) = (   0.0833333   0.3367877   0.0000000), wk =   0.0208333
        k(   30) = (   0.0833333   0.3849002   0.0000000), wk =   0.0208333
        k(   31) = (   0.0833333   0.4330127   0.0000000), wk =   0.0208333
        k(   32) = (   0.0833333   0.4811252   0.0000000), wk =   0.0208333
        k(   33) = (   0.0833333   0.5292377   0.0000000), wk =   0.0208333
        k(   34) = (   0.0833333   0.5773503   0.0000000), wk =   0.0104167
        k(   35) = (   0.1250000   0.2165064   0.0000000), wk =   0.0104167
        k(   36) = (   0.1250000   0.2646189   0.0000000), wk =   0.0208333
        k(   37) = (   0.1250000   0.3127314   0.0000000), wk =   0.0208333
        k(   38) = (   0.1250000   0.3608439   0.0000000), wk =   0.0208333
        k(   39) = (   0.1250000   0.4089564   0.0000000), wk =   0.0208333
        k(   40) = (   0.1250000   0.4570690   0.0000000), wk =   0.0208333
        k(   41) = (   0.1250000   0.5051815   0.0000000), wk =   0.0208333
        k(   42) = (   0.1250000   0.5532940   0.0000000), wk =   0.0208333
        k(   43) = (   0.1666667   0.2886751   0.0000000), wk =   0.0104167
        k(   44) = (   0.1666667   0.3367877   0.0000000), wk =   0.0208333
        k(   45) = (   0.1666667   0.3849002   0.0000000), wk =   0.0208333
        k(   46) = (   0.1666667   0.4330127   0.0000000), wk =   0.0208333
        k(   47) = (   0.1666667   0.4811252   0.0000000), wk =   0.0208333
        k(   48) = (   0.1666667   0.5292377   0.0000000), wk =   0.0208333
        k(   49) = (   0.1666667   0.5773503   0.0000000), wk =   0.0104167
        k(   50) = (   0.2083333   0.3608439   0.0000000), wk =   0.0104167
        k(   51) = (   0.2083333   0.4089564   0.0000000), wk =   0.0208333
        k(   52) = (   0.2083333   0.4570690   0.0000000), wk =   0.0208333
        k(   53) = (   0.2083333   0.5051815   0.0000000), wk =   0.0208333
        k(   54) = (   0.2083333   0.5532940   0.0000000), wk =   0.0208333
        k(   55) = (   0.2500000   0.4330127   0.0000000), wk =   0.0104167
        k(   56) = (   0.2500000   0.4811252   0.0000000), wk =   0.0208333
        k(   57) = (   0.2500000   0.5292377   0.0000000), wk =   0.0208333
        k(   58) = (   0.2500000   0.5773503   0.0000000), wk =   0.0104167
        k(   59) = (   0.2916667   0.5051815   0.0000000), wk =   0.0104167
        k(   60) = (   0.2916667   0.5532940   0.0000000), wk =   0.0208333
        k(   61) = (   0.3333333   0.5773503   0.0000000), wk =   0.0034722

     Dense  grid:   144835 G-vectors     FFT dimensions: (  40,  40, 240)

     Estimated max dynamical RAM per process >       5.19 GB

     Initial potential from superposition of free atoms

     starting charge   25.99895, renormalised to   26.00000

     negative rho (up, down):  1.912E-04 0.000E+00
     Starting wfcs are   42 randomized atomic wfcs +   88 random wfcs
